! TOUCHSTONE file generated by CST MICROWAVE STUDIO
! Date and time: Wed Oct 29 20:13:36 2025
! Project name: calkit_sim.cst
! Parameters = {Rgap=0.9; ceq=6.5e-14; cu_t=0.035; dut_x=83.3333; k=7.07; leq=1.1e-09; line_gap=0.9; line_w=2.5; match_x=66.6667; open_x=16.6667; pad_g=1; pad_x=1.45; pad_z=0.9; ref_1=23.3333; ref_2=16.6667; res_h=0.32; res_len=1; res_w=0.5; short_x=33.3333; sus_l=100; sus_t=1.6; sus_w=40; thru_x=50; vias_r=1}
! Header version: 2015
! Port assignment regex: !\s*Touchstone port\s*([0-9]+)\s*=\s*CST MWS port\s*([0-9]+)\s*\(\"(.*)\"\)(\s*mode\s*([0-9]+))?.*
! Touchstone port assignment:
! Touchstone port 1 = CST MWS port 1 ("")
! Touchstone port 2 = CST MWS port 2 ("")
# GHz S MA R 50
0                    0.000105913             180         0.997508    -4.06986e-13          0.99751    -4.06986e-13      6.89213e-05             180
0.0003               0.000149757        -135.075         0.997508      -0.0631684          0.99751      -0.0631686      0.000126387        -123.111
0.0006               0.000236761        -116.703         0.997508       -0.126337          0.99751       -0.126337       0.00022281        -108.147
0.0009               0.000334819        -108.636         0.997508       -0.189505          0.99751       -0.189506       0.00032521        -102.428
0.0012               0.000436544          -104.3         0.997508       -0.252674          0.99751       -0.252674      0.000429332        -99.4952
0.0015               0.000539866        -101.638         0.997507       -0.315842          0.99751       -0.315843      0.000534169        -97.7351
0.0018               0.000644018        -99.8548         0.997507       -0.379011          0.99751       -0.379012      0.000639369        -96.5744
0.0021               0.000748652         -98.587         0.997507       -0.442179          0.99751        -0.44218      0.000744778        -95.7602
0.0024               0.000853591        -97.6464         0.997507       -0.505347          0.99751       -0.505349      0.000850318         -95.164
0.0027               0.000958734        -96.9261         0.997507       -0.568516          0.99751       -0.568517      0.000955946        -94.7137
0.003                 0.00106402        -96.3612         0.997507       -0.631684         0.997509       -0.631686       0.00106163        -94.3659
0.0033                0.00116941        -95.9097         0.997507       -0.694853         0.997509       -0.694854       0.00116737        -94.0927
0.0036                0.00127488        -95.5436         0.997507       -0.758021         0.997509       -0.758023       0.00127313        -93.8756
0.0039                0.00138041        -95.2434         0.997506       -0.821189         0.997509       -0.821191       0.00137892        -93.7016
0.0042                0.00148599        -94.9951         0.997506       -0.884358         0.997509        -0.88436       0.00148473        -93.5617
0.0045                 0.0015916        -94.7883         0.997506       -0.947526         0.997508       -0.947528       0.00159055        -93.4489
0.0048                0.00169724        -94.6154         0.997506        -1.01069         0.997508         -1.0107       0.00169639        -93.3582
0.0051                0.00180291        -94.4703         0.997505        -1.07386         0.997508        -1.07387       0.00180223        -93.2858
0.0054                 0.0019086        -94.3484         0.997505        -1.13703         0.997508        -1.13703       0.00190809        -93.2285
0.0057                 0.0020143        -94.2462         0.997505         -1.2002         0.997507         -1.2002       0.00201394         -93.184
0.006                 0.00212002        -94.1606         0.997504        -1.26337         0.997507        -1.26337       0.00211981        -93.1504
0.0063                0.00222575        -94.0894         0.997504        -1.32654         0.997507        -1.32654       0.00222567        -93.1261
0.0066                0.00233148        -94.0304         0.997504         -1.3897         0.997506        -1.38971       0.00233154        -93.1099
0.0069                0.00243723        -93.9822         0.997503        -1.45287         0.997506        -1.45288       0.00243741        -93.1006
0.0072                0.00254298        -93.9434         0.997503        -1.51604         0.997506        -1.51604       0.00254328        -93.0975
0.0075                0.00264874        -93.9129         0.997503        -1.57921         0.997505        -1.57921       0.00264916        -93.0998
0.0078                 0.0027545        -93.8898         0.997502        -1.64238         0.997505        -1.64238       0.00275503        -93.1069
0.0081                0.00286026        -93.8731         0.997502        -1.70554         0.997504        -1.70555        0.0028609        -93.1182
0.0084                0.00296603        -93.8622         0.997501        -1.76871         0.997504        -1.76872       0.00296678        -93.1332
0.0087                 0.0030718        -93.8566         0.997501        -1.83188         0.997503        -1.83189       0.00307265        -93.1517
0.009                 0.00317757        -93.8557           0.9975        -1.89505         0.997503        -1.89505       0.00317852        -93.1733
0.0093                0.00328334         -93.859           0.9975        -1.95822         0.997502        -1.95822       0.00328439        -93.1976
0.0096                0.00338911        -93.8661         0.997499        -2.02139         0.997502        -2.02139       0.00339026        -93.2244
0.0099                0.00349488        -93.8767         0.997499        -2.08455         0.997501        -2.08456       0.00349612        -93.2535
0.0102                0.00360065        -93.8906         0.997498        -2.14772         0.997501        -2.14773       0.00360198        -93.2846
0.0105                0.00370642        -93.9073         0.997498        -2.21089           0.9975        -2.21089       0.00370785        -93.3177
0.0108                0.00381219        -93.9267         0.997497        -2.27406           0.9975        -2.27406        0.0038137        -93.3525
0.0111                0.00391796        -93.9486         0.997497        -2.33722         0.997499        -2.33723       0.00391956        -93.3889
0.0114                0.00402372        -93.9727         0.997496        -2.40039         0.997499         -2.4004       0.00402541        -93.4267
0.0117                0.00412949        -93.9989         0.997495        -2.46356         0.997498        -2.46357       0.00413126         -93.466
0.012                 0.00423525         -94.027         0.997495        -2.52673         0.997497        -2.52673       0.00423711        -93.5064
0.0123                0.00434101         -94.057         0.997494         -2.5899         0.997497         -2.5899       0.00434295        -93.5481
0.0126                0.00444676        -94.0886         0.997493        -2.65306         0.997496        -2.65307       0.00444879        -93.5908
0.0129                0.00455252        -94.1217         0.997493        -2.71623         0.997495        -2.71624       0.00455463        -93.6345
0.0132                0.00465827        -94.1563         0.997492         -2.7794         0.997495        -2.77941       0.00466046        -93.6792
0.0135                0.00476402        -94.1922         0.997491        -2.84257         0.997494        -2.84257       0.00476629        -93.7248
0.0138                0.00486976        -94.2294         0.997491        -2.90573         0.997493        -2.90574       0.00487211        -93.7711
0.0141                 0.0049755        -94.2678          0.99749         -2.9689         0.997492        -2.96891       0.00497793        -93.8183
0.0144                0.00508124        -94.3072         0.997489        -3.03207         0.997492        -3.03208       0.00508375        -93.8661
0.0147                0.00518697        -94.3477         0.997488        -3.09524         0.997491        -3.09524       0.00518956        -93.9146
0.015                  0.0052927        -94.3892         0.997487         -3.1584          0.99749        -3.15841       0.00529536        -93.9638
0.0153                0.00539842        -94.4316         0.997487        -3.22157         0.997489        -3.22158       0.00540116        -94.0135
0.0156                0.00550414        -94.4749         0.997486        -3.28474         0.997488        -3.28475       0.00550696        -94.0638
0.0159                0.00560986        -94.5189         0.997485        -3.34791         0.997488        -3.34791       0.00561275        -94.1147
0.0162                0.00571557        -94.5638         0.997484        -3.41107         0.997487        -3.41108       0.00571854         -94.166
0.0165                0.00582127        -94.6094         0.997483        -3.47424         0.997486        -3.47425       0.00582432        -94.2178
0.0168                0.00592697        -94.6556         0.997482        -3.53741         0.997485        -3.53742       0.00593009        -94.2701
0.0171                0.00603267        -94.7025         0.997481        -3.60057         0.997484        -3.60058       0.00603586        -94.3228
0.0174                0.00613836        -94.7501          0.99748        -3.66374         0.997483        -3.66375       0.00614163        -94.3759
0.0177                0.00624404        -94.7982         0.997479        -3.72691         0.997482        -3.72692       0.00624739        -94.4294
0.018                 0.00634972        -94.8468         0.997479        -3.79008         0.997481        -3.79009       0.00635314        -94.4832
0.0183                 0.0064554         -94.896         0.997478        -3.85324          0.99748        -3.85325       0.00645889        -94.5374
0.0186                0.00656106        -94.9457         0.997477        -3.91641         0.997479        -3.91642       0.00656463        -94.5919
0.0189                0.00666672        -94.9959         0.997476        -3.97958         0.997478        -3.97959       0.00667036        -94.6467
0.0192                0.00677238        -95.0466         0.997474        -4.04274         0.997477        -4.04275       0.00677609        -94.7019
0.0195                0.00687803        -95.0977         0.997473        -4.10591         0.997476        -4.10592       0.00688181        -94.7573
0.0198                0.00698367        -95.1492         0.997472        -4.16908         0.997475        -4.16909       0.00698753        -94.8129
0.0201                0.00708931        -95.2011         0.997471        -4.23224         0.997474        -4.23225       0.00709324        -94.8689
0.0204                0.00719494        -95.2534          0.99747        -4.29541         0.997473        -4.29542       0.00719894        -94.9251
0.0207                0.00730057         -95.306         0.997469        -4.35858         0.997472        -4.35859       0.00730463        -94.9815
0.021                 0.00740618         -95.359         0.997468        -4.42174         0.997471        -4.42175       0.00741032        -95.0381
0.0213                0.00751179        -95.4123         0.997467        -4.48491         0.997469        -4.48492         0.007516         -95.095
0.0216                 0.0076174         -95.466         0.997466        -4.54808         0.997468        -4.54809       0.00762168        -95.1521
0.0219                0.00772299          -95.52         0.997465        -4.61124         0.997467        -4.61125       0.00772734        -95.2094
0.0222                0.00782858        -95.5742         0.997463        -4.67441         0.997466        -4.67442         0.007833        -95.2668
0.0225                0.00793416        -95.6287         0.997462        -4.73757         0.997465        -4.73759       0.00793865        -95.3245
0.0228                0.00803974        -95.6836         0.997461        -4.80074         0.997463        -4.80075        0.0080443        -95.3823
0.0231                 0.0081453        -95.7386          0.99746        -4.86391         0.997462        -4.86392       0.00814993        -95.4403
0.0234                0.00825086        -95.7939         0.997458        -4.92707         0.997461        -4.92709       0.00825556        -95.4985
0.0237                0.00835641        -95.8495         0.997457        -4.99024          0.99746        -4.99025       0.00836118        -95.5568
0.024                 0.00846196        -95.9053         0.997456         -5.0534         0.997458        -5.05342        0.0084668        -95.6152
0.0243                0.00856749        -95.9613         0.997454        -5.11657         0.997457        -5.11658        0.0085724        -95.6739
0.0246                0.00867302        -96.0175         0.997453        -5.17974         0.997456        -5.17975         0.008678        -95.7326
0.0249                0.00877854         -96.074         0.997452         -5.2429         0.997454        -5.24291       0.00878358        -95.7915
0.0252                0.00888405        -96.1306         0.997451        -5.30607         0.997453        -5.30608       0.00888916        -95.8505
0.0255                0.00898955        -96.1875         0.997449        -5.36923         0.997452        -5.36925       0.00899474        -95.9097
0.0258                0.00909505        -96.2445         0.997448         -5.4324          0.99745        -5.43241        0.0091003        -95.9689
0.0261                0.00920053        -96.3017         0.997446        -5.49556         0.997449        -5.49558       0.00920585        -96.0283
0.0264                0.00930601        -96.3591         0.997445        -5.55873         0.997447        -5.55874        0.0093114        -96.0878
0.0267                0.00941148        -96.4166         0.997444        -5.62189         0.997446        -5.62191       0.00941693        -96.1474
0.027                 0.00951694        -96.4743         0.997442        -5.68506         0.997445        -5.68507       0.00952246        -96.2072
0.0273                0.00962239        -96.5322         0.997441        -5.74822         0.997443        -5.74824       0.00962798         -96.267
0.0276                0.00972783        -96.5902         0.997439        -5.81139         0.997442         -5.8114       0.00973348        -96.3269
0.0279                0.00983326        -96.6484         0.997438        -5.87455          0.99744        -5.87457       0.00983898        -96.3869
0.0282                0.00993868        -96.7067         0.997436        -5.93772         0.997439        -5.93773       0.00994447         -96.447
0.0285                 0.0100441        -96.7651         0.997435        -6.00088         0.997437         -6.0009          0.01005        -96.5072
0.0288                 0.0101495        -96.8237         0.997433        -6.06405         0.997436        -6.06406        0.0101554        -96.5675
0.0291                 0.0102549        -96.8824         0.997431        -6.12721         0.997434        -6.12723        0.0102609        -96.6278
0.0294                 0.0103603        -96.9412          0.99743        -6.19038         0.997432        -6.19039        0.0103663        -96.6883
0.0297                 0.0104656        -97.0002         0.997428        -6.25354         0.997431        -6.25356        0.0104718        -96.7488
0.03                    0.010571        -97.0593         0.997427         -6.3167         0.997429        -6.31672        0.0105772        -96.8094
0.0303                 0.0106764        -97.1184         0.997425        -6.37987         0.997428        -6.37989        0.0106826        -96.8701
0.0306                 0.0107817        -97.1777         0.997423        -6.44303         0.997426        -6.44305         0.010788        -96.9308
0.0309                  0.010887        -97.2371         0.997422         -6.5062         0.997424        -6.50621        0.0108934        -96.9917
0.0312                 0.0109924        -97.2966          0.99742        -6.56936         0.997423        -6.56938        0.0109988        -97.0525
0.0315                 0.0110977        -97.3563         0.997418        -6.63253         0.997421        -6.63254        0.0111042        -97.1135
0.0318                  0.011203         -97.416         0.997417        -6.69569         0.997419        -6.69571        0.0112096        -97.1745
0.0321                 0.0113083        -97.4758         0.997415        -6.75885         0.997417        -6.75887        0.0113149        -97.2356
0.0324                 0.0114135        -97.5357         0.997413        -6.82202         0.997416        -6.82203        0.0114203        -97.2967
0.0327                 0.0115188        -97.5957         0.997411        -6.88518         0.997414         -6.8852        0.0115256        -97.3579
0.033                  0.0116241        -97.6558          0.99741        -6.94834         0.997412        -6.94836        0.0116309        -97.4192
0.0333                 0.0117293        -97.7159         0.997408        -7.01151          0.99741        -7.01153        0.0117362        -97.4805
0.0336                 0.0118345        -97.7762         0.997406        -7.07467         0.997409        -7.07469        0.0118415        -97.5419
0.0339                 0.0119398        -97.8365         0.997404        -7.13783         0.997407        -7.13785        0.0119468        -97.6033
0.0342                  0.012045        -97.8969         0.997402          -7.201         0.997405        -7.20102        0.0120521        -97.6648
0.0345                 0.0121502        -97.9574         0.997401        -7.26416         0.997403        -7.26418        0.0121574        -97.7263
0.0348                 0.0122554         -98.018         0.997399        -7.32732         0.997401        -7.32734        0.0122626        -97.7879
0.0351                 0.0123606        -98.0786         0.997397        -7.39049         0.997399         -7.3905        0.0123679        -97.8495
0.0354                 0.0124657        -98.1393         0.997395        -7.45365         0.997398        -7.45367        0.0124731        -97.9112
0.0357                 0.0125709        -98.2001         0.997393        -7.51681         0.997396        -7.51683        0.0125783        -97.9729
0.036                   0.012676         -98.261         0.997391        -7.57997         0.997394        -7.57999        0.0126835        -98.0346
0.0363                 0.0127811        -98.3219         0.997389        -7.64314         0.997392        -7.64316        0.0127887        -98.0964
0.0366                 0.0128863        -98.3828         0.997387         -7.7063          0.99739        -7.70632        0.0128939        -98.1583
0.0369                 0.0129914        -98.4439         0.997385        -7.76946         0.997388        -7.76948        0.0129991        -98.2202
0.0372                 0.0130965         -98.505         0.997383        -7.83262         0.997386        -7.83264        0.0131042        -98.2821
0.0375                 0.0132015        -98.5662         0.997381        -7.89579         0.997384        -7.89581        0.0132094         -98.344
0.0378                 0.0133066        -98.6274         0.997379        -7.95895         0.997382        -7.95897        0.0133145        -98.4061
0.0381                 0.0134116        -98.6887         0.997377        -8.02211          0.99738        -8.02213        0.0134196        -98.4681
0.0384                 0.0135167          -98.75         0.997375        -8.08527         0.997378        -8.08529        0.0135247        -98.5302
0.0387                 0.0136217        -98.8114         0.997373        -8.14843         0.997376        -8.14845        0.0136298        -98.5923
0.039                  0.0137267        -98.8728         0.997371        -8.21159         0.997373        -8.21162        0.0137349        -98.6544
0.0393                 0.0138317        -98.9343         0.997369        -8.27476         0.997371        -8.27478        0.0138399        -98.7166
0.0396                 0.0139367        -98.9959         0.997367        -8.33792         0.997369        -8.33794         0.013945        -98.7788
0.0399                 0.0140417        -99.0575         0.997365        -8.40108         0.997367         -8.4011          0.01405        -98.8411
0.0402                 0.0141467        -99.1191         0.997362        -8.46424         0.997365        -8.46426        0.0141551        -98.9033
0.0405                 0.0142516        -99.1808          0.99736         -8.5274         0.997363        -8.52742        0.0142601        -98.9656
0.0408                 0.0143565        -99.2425         0.997358        -8.59056         0.997361        -8.59058        0.0143651         -99.028
0.0411                 0.0144615        -99.3043         0.997356        -8.65372         0.997358        -8.65374          0.01447        -99.0903
0.0414                 0.0145664        -99.3662         0.997354        -8.71688         0.997356         -8.7169         0.014575        -99.1527
0.0417                 0.0146713         -99.428         0.997351        -8.78004         0.997354        -8.78007          0.01468        -99.2152
0.042                  0.0147761        -99.4899         0.997349         -8.8432         0.997352        -8.84323        0.0147849        -99.2776
0.0423                  0.014881        -99.5519         0.997347        -8.90636         0.997349        -8.90639        0.0148898        -99.3401
0.0426                 0.0149858        -99.6139         0.997345        -8.96952         0.997347        -8.96955        0.0149948        -99.4026
0.0429                 0.0150907        -99.6759         0.997342        -9.03268         0.997345        -9.03271        0.0150996        -99.4651
0.0432                 0.0151955         -99.738          0.99734        -9.09584         0.997342        -9.09587        0.0152045        -99.5277
0.0435                 0.0153003        -99.8001         0.997338          -9.159          0.99734        -9.15903        0.0153094        -99.5903
0.0438                 0.0154051        -99.8623         0.997335        -9.22216         0.997338        -9.22219        0.0154143        -99.6529
0.0441                 0.0155099        -99.9245         0.997333        -9.28532         0.997335        -9.28535        0.0155191        -99.7155
0.0444                 0.0156146        -99.9867         0.997331        -9.34848         0.997333        -9.34851        0.0156239        -99.7782
0.0447                 0.0157194        -100.049         0.997328        -9.41164         0.997331        -9.41167        0.0157287        -99.8408
0.045                  0.0158241        -100.111         0.997326         -9.4748         0.997328        -9.47483        0.0158335        -99.9036
0.0453                 0.0159288        -100.174         0.997323        -9.53796         0.997326        -9.53798        0.0159383        -99.9663
0.0456                 0.0160335        -100.236         0.997321        -9.60112         0.997323        -9.60114        0.0160431        -100.029
0.0459                 0.0161382        -100.298         0.997318        -9.66428         0.997321         -9.6643        0.0161478        -100.092
0.0462                 0.0162429        -100.361         0.997316        -9.72744         0.997318        -9.72746        0.0162525        -100.155
0.0465                 0.0163475        -100.423         0.997313         -9.7906         0.997316        -9.79062        0.0163572        -100.217
0.0468                 0.0164522        -100.486         0.997311        -9.85375         0.997313        -9.85378        0.0164619         -100.28
0.0471                 0.0165568        -100.548         0.997308        -9.91691         0.997311        -9.91694        0.0165666        -100.343
0.0474                 0.0166614        -100.611         0.997306        -9.98007         0.997308         -9.9801        0.0166713        -100.406
0.0477                  0.016766        -100.673         0.997303        -10.0432         0.997306        -10.0433        0.0167759        -100.469
0.048                  0.0168705        -100.736         0.997301        -10.1064         0.997303        -10.1064        0.0168806        -100.532
0.0483                 0.0169751        -100.799         0.997298        -10.1695         0.997301        -10.1696        0.0169852        -100.595
0.0486                 0.0170796        -100.861         0.997296        -10.2327         0.997298        -10.2327        0.0170898        -100.658
0.0489                 0.0171842        -100.924         0.997293        -10.2959         0.997295        -10.2959        0.0171944        -100.721
0.0492                 0.0172887        -100.987          0.99729         -10.359         0.997293         -10.359        0.0172989        -100.783
0.0495                 0.0173932        -101.049         0.997288        -10.4222          0.99729        -10.4222        0.0174035        -100.846
0.0498                 0.0174976        -101.112         0.997285        -10.4853         0.997287        -10.4854         0.017508        -100.909
0.0501                 0.0176021        -101.175         0.997282        -10.5485         0.997285        -10.5485        0.0176125        -100.973
0.0504                 0.0177065        -101.238          0.99728        -10.6116         0.997282        -10.6117         0.017717        -101.036
0.0507                  0.017811        -101.301         0.997277        -10.6748         0.997279        -10.6748        0.0178215        -101.099
0.051                  0.0179154        -101.364         0.997274         -10.738         0.997277         -10.738         0.017926        -101.162
0.0513                 0.0180198        -101.426         0.997271        -10.8011         0.997274        -10.8011        0.0180304        -101.225
0.0516                 0.0181241        -101.489         0.997269        -10.8643         0.997271        -10.8643        0.0181349        -101.288
0.0519                 0.0182285        -101.552         0.997266        -10.9274         0.997268        -10.9275        0.0182393        -101.351
0.0522                 0.0183328        -101.615         0.997263        -10.9906         0.997266        -10.9906        0.0183437        -101.414
0.0525                 0.0184371        -101.678          0.99726        -11.0537         0.997263        -11.0538        0.0184481        -101.477
0.0528                 0.0185414        -101.741         0.997257        -11.1169          0.99726        -11.1169        0.0185524         -101.54
0.0531                 0.0186457        -101.804         0.997255        -11.1801         0.997257        -11.1801        0.0186568        -101.604
0.0534                   0.01875        -101.867         0.997252        -11.2432         0.997254        -11.2432        0.0187611        -101.667
0.0537                 0.0188542         -101.93         0.997249        -11.3064         0.997251        -11.3064        0.0188654         -101.73
0.054                  0.0189584        -101.993         0.997246        -11.3695         0.997248        -11.3695        0.0189697        -101.793
0.0543                 0.0190627        -102.057         0.997243        -11.4327         0.997245        -11.4327        0.0190739        -101.856
0.0546                 0.0191668         -102.12          0.99724        -11.4958         0.997243        -11.4959        0.0191782         -101.92
0.0549                  0.019271        -102.183         0.997237         -11.559          0.99724         -11.559        0.0192824        -101.983
0.0552                 0.0193752        -102.246         0.997234        -11.6221         0.997237        -11.6222        0.0193866        -102.046
0.0555                 0.0194793        -102.309         0.997231        -11.6853         0.997234        -11.6853        0.0194908        -102.109
0.0558                 0.0195834        -102.372         0.997228        -11.7484         0.997231        -11.7485         0.019595        -102.173
0.0561                 0.0196875        -102.436         0.997225        -11.8116         0.997228        -11.8116        0.0196992        -102.236
0.0564                 0.0197916        -102.499         0.997222        -11.8748         0.997225        -11.8748        0.0198033        -102.299
0.0567                 0.0198957        -102.562         0.997219        -11.9379         0.997222        -11.9379        0.0199074        -102.363
0.057                  0.0199997        -102.625         0.997216        -12.0011         0.997219        -12.0011        0.0200115        -102.426
0.0573                 0.0201037        -102.689         0.997213        -12.0642         0.997216        -12.0642        0.0201156        -102.489
0.0576                 0.0202077        -102.752          0.99721        -12.1274         0.997212        -12.1274        0.0202197        -102.553
0.0579                 0.0203117        -102.815         0.997207        -12.1905         0.997209        -12.1906        0.0203237        -102.616
0.0582                 0.0204157        -102.878         0.997204        -12.2537         0.997206        -12.2537        0.0204277        -102.679
0.0585                 0.0205196        -102.942         0.997201        -12.3168         0.997203        -12.3169        0.0205317        -102.743
0.0588                 0.0206235        -103.005         0.997197          -12.38           0.9972          -12.38        0.0206357        -102.806